LAMMPS

        1957  atoms
        1311  bonds
         679  angles
          44  dihedrals
           5  impropers

          10  atom types
          11  bond types
          18  angle types
          26  dihedral types
           5  improper types

     -13.072       12.767 xlo xhi
     -14.946       14.755 ylo yhi
     -13.991       13.948 zlo zhi

Masses

       1      14.01  # NA
       2      12.01  # CC
       3      12.01  # CD
       4      12.01  # C3
       5      1.008  # HC
       6      1.008  # H5
       7      1.008  # H4
       8      1.008  # HN
       9      1.008  # HT
      10    15.9994  # OT

Pair Coeffs # lj/charmm/coul/long

       1             0.17    3.24999852378             0.17    3.24999852378  # NA
       2            0.086    3.39966950842            0.086    3.39966950842  # CC
       3            0.086    3.39966950842            0.086    3.39966950842  # CD
       4           0.1094    3.39966950842           0.1094    3.39966950842  # C3
       5           0.0157    2.64953278775           0.0157    2.64953278775  # HC
       6            0.015    2.42146271591            0.015    2.42146271591  # H5
       7            0.015    2.51055258772            0.015    2.51055258772  # H4
       8           0.0157    1.06907846177           0.0157    1.06907846177  # HN
       9            0.046   0.400013524445            0.046   0.400013524445  # HT
      10           0.1521    3.15057422683           0.1521    3.15057422683  # OT

Atoms # full

       1       1     1   -0.1271           -1.171            1.713           -2.278  # NA
       2       1     2   -0.0156           -0.268            2.421           -1.486  # CC
       3       1     2   -0.1263           -1.088            0.349           -1.964  # CC
       4       1     1   -0.1411            0.325            1.456           -0.717  # NA
       5       1     3   -0.0406           -0.136            0.194           -0.979  # CD
       6       1     4   -0.0784           -0.512           -1.416            0.943  # C3
       7       1     5    0.0897            1.355           -1.091           -0.119  # HC
       8       1     5    0.0897            0.138           -1.936           -1.068  # HC
       9       1     4   -0.1011           -0.102           -2.754            1.593  # C3
      10       1     4   -0.0391            0.281           -1.114           -0.351  # C3
      11       1     5    0.0517           -1.587           -1.449            0.716  # HC
      12       1     5    0.0517           -0.365           -0.601            1.668  # HC
      13       1     5    0.0537            -0.69           -2.933            2.502  # HC
      14       1     5    0.0537            0.961           -2.749            1.862  # HC
      15       1     5    0.0537            -0.28           -3.591            0.905  # HC
      16       1     6     0.264           -0.052            3.488           -1.479  # H5
      17       1     7     0.239           -1.699           -0.411           -2.451  # H4
      18       1     8    0.3607            1.078             1.64           -0.055  # HN
      19       1     8    0.3627            -1.79            2.116           -2.986  # HN
      20       2    10    -0.834           11.521            8.322            7.761  # OT
      21       2     9     0.417            11.85            7.475            7.432  # HT
      22       2     9     0.417           11.495             8.91            6.992  # HT
      23       3    10    -0.834           10.107           10.279            9.574  # OT
      24       3     9     0.417            9.353            9.758            9.909  # HT
      25       3     9     0.417            10.76            9.565            9.437  # HT
      26       4    10    -0.834              4.1           10.584           10.447  # OT
      27       4     9     0.417            3.296           10.287           10.901  # HT
      28       4     9     0.417             4.74           10.645            11.19  # HT
      29       5    10    -0.834            2.573            5.542            4.275  # OT
      30       5     9     0.417            1.645            5.842            4.169  # HT
      31       5     9     0.417            2.799            5.323            3.355  # HT
      32       6    10    -0.834            0.439            8.072            10.14  # OT
      33       6     9     0.417            1.109            7.363           10.146  # HT
      34       6     9     0.417            0.536            8.451            9.246  # HT
      35       7    10    -0.834            9.531           12.943            9.563  # OT
      36       7     9     0.417            9.508            11.97            9.478  # HT
      37       7     9     0.417           10.265           13.047           10.205  # HT
      38       8    10    -0.834            1.782            3.563           11.967  # OT
      39       8     9     0.417             1.56            2.645           12.204  # HT
      40       8     9     0.417            1.271            4.091            12.61  # HT
      41       9    10    -0.834           10.488            5.735            9.831  # OT
      42       9     9     0.417           11.008            4.902            9.765  # HT
      43       9     9     0.417           10.541            6.077            8.923  # HT
      44      10    10    -0.834            4.733            4.094            5.296  # OT
      45      10     9     0.417            4.815            5.005            5.633  # HT
      46      10     9     0.417            3.798            4.097             5.03  # HT
      47      11    10    -0.834            2.317            6.043           10.551  # OT
      48      11     9     0.417            3.072            6.281           11.132  # HT
      49      11     9     0.417            2.053            5.174           10.899  # HT
      50      12    10    -0.834            6.548            7.106            9.622  # OT
      51      12     9     0.417            7.094            7.593           10.267  # HT
      52      12     9     0.417            7.089            6.299            9.473  # HT
      53      13    10    -0.834            4.755            1.647           13.591  # OT
      54      13     9     0.417             4.71            2.323           12.888  # HT
      55      13     9     0.417            3.904            1.227           13.737  # HT
      56      14    10    -0.834           11.221           11.815            5.399  # OT
      57      14     9     0.417           10.594           12.292            4.828  # HT
      58      14     9     0.417           11.728           12.517            5.813  # HT
      59      15    10    -0.834            6.109            11.29           12.056  # OT
      60      15     9     0.417            5.768           11.968            12.69  # HT
      61      15     9     0.417            6.279           11.899           11.307  # HT
      62      16    10    -0.834            4.507            3.445             11.8  # OT
      63      16     9     0.417            4.862            4.329           11.619  # HT
      64      16     9     0.417            3.567            3.607           11.979  # HT
      65      17    10    -0.834             5.27           13.229           13.468  # OT
      66      17     9     0.417            5.887           13.975           13.584  # HT
      67      17     9     0.417             4.46           13.719           13.696  # HT
      68      18    10    -0.834            0.595           12.498            2.814  # OT
      69      18     9     0.417            0.234           12.997            2.042  # HT
      70      18     9     0.417            0.852           13.224            3.388  # HT
      71      19    10    -0.834            8.208            0.943            8.231  # OT
      72      19     9     0.417            8.497             0.36            7.509  # HT
      73      19     9     0.417             7.26            1.043            8.045  # HT
      74      20    10    -0.834           10.607            8.974            4.997  # OT
      75      20     9     0.417            9.656            8.936            5.186  # HT
      76      20     9     0.417           10.746            9.928             4.87  # HT
      77      21    10    -0.834           10.601            5.216            1.915  # OT
      78      21     9     0.417            9.649            5.416            2.077  # HT
      79      21     9     0.417           10.895            5.999            1.447  # HT
      80      22    10    -0.834            6.208            9.512            7.744  # OT
      81      22     9     0.417            5.796             8.78            7.265  # HT
      82      22     9     0.417            6.278            9.141            8.638  # HT
      83      23    10    -0.834            6.662           13.128             9.96  # OT
      84      23     9     0.417            6.368           12.614              9.2  # HT
      85      23     9     0.417            7.617           13.249            9.801  # HT
      86      24    10    -0.834            4.882            6.235           11.562  # OT
      87      24     9     0.417            5.443            6.421           10.773  # HT
      88      24     9     0.417             5.42            6.679           12.255  # HT
      89      25    10    -0.834            2.885            8.399            5.286  # OT
      90      25     9     0.417            2.788            9.128            4.636  # HT
      91      25     9     0.417            2.593            7.633            4.771  # HT
      92      26    10    -0.834            0.527           11.602           11.064  # OT
      93      26     9     0.417            0.599           11.699           10.107  # HT
      94      26     9     0.417            1.133           10.861           11.261  # HT
      95      27    10    -0.834            1.773           13.283            7.466  # OT
      96      27     9     0.417            1.391           13.418            6.599  # HT
      97      27     9     0.417            2.676           12.972            7.281  # HT
      98      28    10    -0.834            5.361             1.74             8.62  # OT
      99      28     9     0.417            4.928            2.556            8.322  # HT
     100      28     9     0.417            5.906            2.074            9.364  # HT
     101      29    10    -0.834            8.468            1.375            3.512  # OT
     102      29     9     0.417            7.824             1.37            4.248  # HT
     103      29     9     0.417            8.406             0.48            3.135  # HT
     104      30    10    -0.834            7.394            2.281           10.507  # OT
     105      30     9     0.417            7.683            3.212           10.398  # HT
     106      30     9     0.417            7.952            1.804            9.861  # HT
     107      31    10    -0.834             5.16            6.874            6.368  # OT
     108      31     9     0.417            4.912             6.64            7.276  # HT
     109      31     9     0.417            4.361            7.318            6.024  # HT
     110      32    10    -0.834           11.039            5.547            7.024  # OT
     111      32     9     0.417            11.35            5.815            6.157  # HT
     112      32     9     0.417           11.312            4.617            7.103  # HT
     113      33    10    -0.834            0.024            2.099            9.211  # OT
     114      33     9     0.417           -0.264            2.687            9.931  # HT
     115      33     9     0.417            0.774              1.6            9.611  # HT
     116      34    10    -0.834            0.224            6.032            0.408  # OT
     117      34     9     0.417            0.149            6.995            0.575  # HT
     118      34     9     0.417           -0.187            5.945           -0.464  # HT
     119      35    10    -0.834            11.55            8.151           11.052  # OT
     120      35     9     0.417           10.824              8.6           11.471  # HT
     121      35     9     0.417           11.202             7.28           10.791  # HT
     122      36    10    -0.834            7.994            4.773              9.5  # OT
     123      36     9     0.417            8.042            4.359            8.615  # HT
     124      36     9     0.417            8.912            5.108            9.617  # HT
     125      37    10    -0.834            3.873            4.643            8.456  # OT
     126      37     9     0.417            3.512            5.149            9.201  # HT
     127      37     9     0.417            3.079            4.233            8.083  # HT
     128      38    10    -0.834            8.074            5.751            2.501  # OT
     129      38     9     0.417             8.17            5.763            3.474  # HT
     130      38     9     0.417             7.69            6.643            2.353  # HT
     131      39    10    -0.834           11.983            3.561           10.476  # OT
     132      39     9     0.417           12.077            4.025            11.33  # HT
     133      39     9     0.417           11.791            2.647           10.728  # HT
     134      40    10    -0.834            7.059            8.138            1.873  # OT
     135      40     9     0.417            6.524             7.64            1.215  # HT
     136      40     9     0.417            7.795            8.477            1.321  # HT
     137      41    10    -0.834            8.308            8.836           11.226  # OT
     138      41     9     0.417             8.68            8.375           11.987  # HT
     139      41     9     0.417            8.123            9.715           11.607  # HT
     140      42    10    -0.834            1.209              3.6            7.356  # OT
     141      42     9     0.417            0.877            3.204            8.189  # HT
     142      42     9     0.417            1.125             2.85            6.757  # HT
     143      43    10    -0.834            6.086            7.943           13.412  # OT
     144      43     9     0.417            5.839            8.792           13.784  # HT
     145      43     9     0.417            7.035            7.922           13.619  # HT
     146      44    10    -0.834            4.635           12.125            4.176  # OT
     147      44     9     0.417            3.885            11.53            4.018  # HT
     148      44     9     0.417            5.374           11.588            3.824  # HT
     149      45    10    -0.834            10.88            2.496            4.145  # OT
     150      45     9     0.417           10.042            1.999            3.992  # HT
     151      45     9     0.417           10.664            3.307            3.655  # HT
     152      46    10    -0.834            4.597           11.741            7.809  # OT
     153      46     9     0.417            5.191           10.963            7.743  # HT
     154      46     9     0.417            4.233           11.643            8.695  # HT
     155      47    10    -0.834            9.606           13.029            3.091  # OT
     156      47     9     0.417            9.886           13.787            2.565  # HT
     157      47     9     0.417            8.738           13.312            3.423  # HT
     158      48    10    -0.834           12.341           12.356            8.241  # OT
     159      48     9     0.417           12.765           11.638            7.751  # HT
     160      48     9     0.417           11.526           11.955            8.586  # HT
     161      49    10    -0.834            8.536           13.107            5.814  # OT
     162      49     9     0.417            9.193           13.653            6.245  # HT
     163      49     9     0.417            7.708           13.616            5.891  # HT
     164      50    10    -0.834            0.643            8.705            1.313  # OT
     165      50     9     0.417            1.532            8.975            1.619  # HT
     166      50     9     0.417            0.181            9.552            1.219  # HT
     167      51    10    -0.834            7.896           10.077            5.469  # OT
     168      51     9     0.417             8.27           10.947            5.695  # HT
     169      51     9     0.417            7.463            9.819            6.304  # HT
     170      52    10    -0.834            3.776            0.452            5.927  # OT
     171      52     9     0.417            3.579            0.425            6.873  # HT
     172      52     9     0.417            2.926            0.768            5.557  # HT
     173      53    10    -0.834           11.405           13.624           11.447  # OT
     174      53     9     0.417           12.061           12.923           11.459  # HT
     175      53     9     0.417           11.943             14.4           11.221  # HT
     176      54    10    -0.834             2.63           10.525            3.457  # OT
     177      54     9     0.417            2.019            11.28            3.419  # HT
     178      54     9     0.417            3.123           10.611            2.617  # HT
     179      55    10    -0.834           12.199            4.668           13.115  # OT
     180      55     9     0.417           12.613            3.889           13.452  # HT
     181      55     9     0.417           11.344            4.777           13.539  # HT
     182      56    10    -0.834            7.576            5.925            5.326  # OT
     183      56     9     0.417            6.852            6.397            5.788  # HT
     184      56     9     0.417             7.86            5.282            5.999  # HT
     185      57    10    -0.834            11.55             2.74            6.828  # OT
     186      57     9     0.417           11.398            2.677            5.861  # HT
     187      57     9     0.417           12.507            2.698            6.947  # HT
     188      58    10    -0.834            5.737            4.263            2.711  # OT
     189      58     9     0.417            6.623            4.674            2.663  # HT
     190      58     9     0.417            5.425            4.544            3.587  # HT
     191      59    10    -0.834            4.618           10.491            1.239  # OT
     192      59     9     0.417            5.439           10.418            1.764  # HT
     193      59     9     0.417            4.778            9.843            0.521  # HT
     194      60    10    -0.834            3.357            7.958            1.918  # OT
     195      60     9     0.417             3.43            6.986            1.992  # HT
     196      60     9     0.417            4.269            8.255            2.013  # HT
     197      61    10    -0.834            7.786           12.492            0.676  # OT
     198      61     9     0.417            7.683           11.863              1.4  # HT
     199      61     9     0.417            7.636           11.939           -0.105  # HT
     200      62    10    -0.834           11.022           11.496            1.264  # OT
     201      62     9     0.417           10.483           11.981            1.929  # HT
     202      62     9     0.417           11.671           11.055            1.832  # HT
     203      63    10    -0.834             6.66           10.503            3.139  # OT
     204      63     9     0.417            7.114           10.344            4.004  # HT
     205      63     9     0.417            6.855            9.647            2.709  # HT
     206      64    10    -0.834            9.201            9.479             0.48  # OT
     207      64     9     0.417            9.746            8.818            0.048  # HT
     208      64     9     0.417            9.848           10.175            0.714  # HT
     209      65    10    -0.834            8.183            1.931           13.061  # OT
     210      65     9     0.417            7.644            2.042           12.251  # HT
     211      65     9     0.417            7.504            1.657           13.708  # HT
     212      66    10    -0.834             8.71           11.151           13.083  # OT
     213      66     9     0.417            8.942           11.936           13.585  # HT
     214      66     9     0.417            7.788           11.018           13.405  # HT
     215      67    10    -0.834            5.588            6.564            0.152  # OT
     216      67     9     0.417            5.392            5.678            0.482  # HT
     217      67     9     0.417            5.415            6.489           -0.808  # HT
     218      68    10    -0.834            4.405            3.743            0.085  # OT
     219      68     9     0.417            4.724            3.631           -0.821  # HT
     220      68     9     0.417            5.105            3.316            0.616  # HT
     221      69    10    -0.834            7.643            2.633            1.079  # OT
     222      69     9     0.417            7.247            1.929            0.522  # HT
     223      69     9     0.417            7.815             2.17            1.918  # HT
     224      70    10    -0.834             3.41           12.988            0.937  # OT
     225      70     9     0.417             3.87           13.505            1.609  # HT
     226      70     9     0.417            3.907           12.147            0.962  # HT
     227      71    10    -0.834            5.615           13.704            6.347  # OT
     228      71     9     0.417            4.917           13.919            6.981  # HT
     229      71     9     0.417            5.115            13.21            5.659  # HT
     230      72    10    -0.834            0.939            9.135            7.497  # OT
     231      72     9     0.417            0.297             8.86            6.823  # HT
     232      72     9     0.417            1.785            9.019             7.03  # HT
     233      73    10    -0.834            2.031            9.535           12.036  # OT
     234      73     9     0.417            2.343            9.425           12.934  # HT
     235      73     9     0.417            1.409            8.793           11.908  # HT
     236      74    10    -0.834            0.163            6.325            3.424  # OT
     237      74     9     0.417           -0.743            6.631            3.274  # HT
     238      74     9     0.417            0.626            6.648            2.634  # HT
     239      75    10    -0.834            2.729            5.422             1.38  # OT
     240      75     9     0.417            3.401            4.919             0.87  # HT
     241      75     9     0.417             1.98            5.474            0.755  # HT
     242      76    10    -0.834            2.038            0.695           10.286  # OT
     243      76     9     0.417            2.722            0.159            9.834  # HT
     244      76     9     0.417            2.476            0.958            11.11  # HT
     245      77    10    -0.834            1.807            0.893           13.061  # OT
     246      77     9     0.417            1.403            1.313           13.817  # HT
     247      77     9     0.417             1.48           -0.016           13.125  # HT
     248      78    10    -0.834           12.721            0.289           12.566  # OT
     249      78     9     0.417           11.841            0.617           12.271  # HT
     250      78     9     0.417           12.547           -0.229           13.338  # HT
     251      79    10    -0.834             2.77           14.313           13.284  # OT
     252      79     9     0.417            2.064            13.69           13.131  # HT
     253      79     9     0.417            2.925           14.716           12.412  # HT
     254      80    10    -0.834            10.45            1.195             11.5  # OT
     255      80     9     0.417            9.635            1.665           11.762  # HT
     256      80     9     0.417           10.091            0.308           11.309  # HT
     257      81    10    -0.834            1.785            1.498            4.006  # OT
     258      81     9     0.417            2.554            1.631            3.412  # HT
     259      81     9     0.417            1.309            2.335            3.902  # HT
     260      82    10    -0.834            8.291            3.632            7.002  # OT
     261      82     9     0.417            7.513            3.205            6.611  # HT
     262      82     9     0.417            8.823            2.861            7.261  # HT
     263      83    10    -0.834            4.116            2.017            2.542  # OT
     264      83     9     0.417            4.675            1.224             2.42  # HT
     265      83     9     0.417             4.78            2.712            2.731  # HT
     266      84    10    -0.834            6.377            1.775            5.571  # OT
     267      84     9     0.417            5.703            1.089            5.736  # HT
     268      84     9     0.417            5.792            2.533            5.366  # HT
     269      85    10    -0.834           11.504            8.315          -11.015  # OT
     270      85     9     0.417           11.852            7.474          -11.348  # HT
     271      85     9     0.417           11.496            8.899          -11.786  # HT
     272      86    10    -0.834           10.106            10.28           -9.193  # OT
     273      86     9     0.417            9.355            9.749           -8.869  # HT
     274      86     9     0.417           10.759            9.565           -9.342  # HT
     275      87    10    -0.834            4.106            10.59           -8.323  # OT
     276      87     9     0.417              3.3           10.284           -7.872  # HT
     277      87     9     0.417            4.733           10.636           -7.574  # HT
     278      88    10    -0.834            0.433            8.071           -8.633  # OT
     279      88     9     0.417            1.109            7.367           -8.624  # HT
     280      88     9     0.417            0.532             8.45           -9.527  # HT
     281      89    10    -0.834            9.519           12.938           -9.204  # OT
     282      89     9     0.417            9.516           11.966             -9.3  # HT
     283      89     9     0.417           10.267           13.055           -8.575  # HT
     284      90    10    -0.834            1.753            3.561           -6.835  # OT
     285      90     9     0.417            1.576            2.643           -6.561  # HT
     286      90     9     0.417            1.305             4.09           -6.152  # HT
     287      91    10    -0.834            10.49             5.74           -8.944  # OT
     288      91     9     0.417           11.006            4.903           -9.006  # HT
     289      91     9     0.417            10.54            6.075           -9.855  # HT
     290      92    10    -0.834            4.704            4.141          -13.392  # OT
     291      92     9     0.417            4.839            5.067          -13.156  # HT
     292      92     9     0.417            3.824            4.096          -13.761  # HT
     293      93    10    -0.834             2.32            6.039            -8.23  # OT
     294      93     9     0.417            3.065            6.284           -7.637  # HT
     295      93     9     0.417            2.055            5.174           -7.871  # HT
     296      94    10    -0.834            6.548            7.112           -9.152  # OT
     297      94     9     0.417            7.099            7.589           -8.505  # HT
     298      94     9     0.417            7.087            6.302           -9.305  # HT
     299      95    10    -0.834            4.851            1.691           -4.837  # OT
     300      95     9     0.417            4.848            2.244           -5.659  # HT
     301      95     9     0.417            4.003            1.245           -4.928  # HT
     302      96    10    -0.834           11.257            11.83          -13.396  # OT
     303      96     9     0.417           10.604           12.293          -13.933  # HT
     304      96     9     0.417           11.723           12.526          -12.932  # HT
     305      97    10    -0.834            6.134           11.356           -6.665  # OT
     306      97     9     0.417            5.738           12.001           -6.048  # HT
     307      97     9     0.417            6.263           11.913           -7.464  # HT
     308      98    10    -0.834            4.523            3.419           -6.859  # OT
     309      98     9     0.417            4.856            4.287           -7.152  # HT
     310      98     9     0.417            3.571            3.592           -6.774  # HT
     311      99    10    -0.834            5.333           13.324           -4.858  # OT
     312      99     9     0.417            5.899           14.031           -5.184  # HT
     313      99     9     0.417            4.434           13.725           -4.984  # HT
     314     100    10    -0.834            8.206            0.928          -10.527  # OT
     315     100     9     0.417            8.492            0.369          -11.267  # HT
     316     100     9     0.417            7.266            1.054          -10.747  # HT